# vtk DataFile Version 3.0
ASCII
DATASET UNSTRUCTURED_GRID

POINTS 1250 double
0.24899 0.19 0
0.252459 0.189965 0
0.255929 0.18994 0
0.2594 0.189902 0
0.26287 0.18985 0
0.24899 0.1925 0
0.252474 0.192483 0
0.255952 0.192456 0
0.259432 0.192418 0
0.262912 0.192365 0
0.24899 0.195 0
0.252484 0.194993 0
0.255974 0.194968 0
0.259463 0.194929 0
0.262953 0.194876 0
0.24899 0.1975 0
0.252493 0.197499 0
0.255993 0.197475 0
0.259493 0.197436 0
0.262994 0.197382 0
0.24899 0.2 0
0.252501 0.2 0
0.256012 0.199977 0
0.259523 0.199938 0
0.263033 0.199884 0
0.26287 0.18985 0
0.266341 0.189784 0
0.269812 0.189704 0
0.273285 0.189612 0
0.276757 0.189506 0
0.262912 0.192365 0
0.266393 0.192299 0
0.269874 0.192219 0
0.273356 0.192125 0
0.276838 0.192019 0
0.262953 0.194876 0
0.266444 0.194809 0
0.269935 0.194728 0
0.273426 0.194634 0
0.276917 0.194528 0
0.262994 0.197382 0
0.266494 0.197315 0
0.269995 0.197234 0
0.273495 0.197139 0
0.276995 0.197032 0
0.263033 0.199884 0
0.266544 0.199816 0
0.270054 0.199735 0
0.273564 0.19964 0
0.277073 0.199532 0
0.276757 0.189506 0
0.280231 0.189388 0
0.283705 0.189258 0
0.287179 0.189116 0
0.290654 0.188962 0
0.276838 0.192019 0
0.28032 0.1919 0
0.283803 0.191769 0
0.287285 0.191626 0
0.290768 0.191472 0
0.276917 0.194528 0
0.280408 0.194408 0
0.283899 0.194277 0
0.287391 0.194133 0
0.290882 0.193978 0
0.276995 0.197032 0
0.280496 0.196912 0
0.283995 0.19678 0
0.287495 0.196636 0
0.290994 0.196481 0
0.277073 0.199532 0
0.280582 0.199412 0
0.284091 0.19928 0
0.287599 0.199136 0
0.291107 0.19898 0
0.290654 0.188962 0
0.294129 0.188797 0
0.297605 0.188621 0
0.30108 0.188435 0
0.304556 0.188238 0
0.290768 0.191472 0
0.294252 0.191306 0
0.297735 0.19113 0
0.301218 0.190943 0
0.304701 0.190745 0
0.290882 0.193978 0
0.294373 0.193812 0
0.297864 0.193635 0
0.301355 0.193447 0
0.304845 0.193249 0
0.290994 0.196481 0
0.294493 0.196314 0
0.297992 0.196137 0
0.301491 0.195948 0
0.304989 0.19575 0
0.291107 0.19898 0
0.294614 0.198813 0
0.29812 0.198635 0
0.301626 0.198446 0
0.305131 0.198247 0
0.304556 0.188238 0
0.308033 0.188031 0
0.311509 0.187815 0
0.314986 0.187589 0
0.318463 0.187354 0
0.304701 0.190745 0
0.308185 0.190538 0
0.311668 0.19032 0
0.315152 0.190094 0
0.318635 0.189858 0
0.304845 0.193249 0
0.308336 0.193041 0
0.311826 0.192823 0
0.315316 0.192596 0
0.318806 0.192359 0
0.304989 0.19575 0
0.308486 0.195541 0
0.311983 0.195322 0
0.31548 0.195094 0
0.318977 0.194857 0
0.305131 0.198247 0
0.308636 0.198038 0
0.31214 0.197819 0
0.315644 0.19759 0
0.319147 0.197352 0
0.318463 0.187354 0
0.32194 0.187109 0
0.325417 0.186856 0
0.328894 0.186595 0
0.332371 0.186325 0
0.318635 0.189858 0
0.322118 0.189613 0
0.325601 0.189359 0
0.329084 0.189097 0
0.332568 0.188827 0
0.318806 0.192359 0
0.322296 0.192113 0
0.325785 0.191859 0
0.329274 0.191596 0
0.332763 0.191325 0
0.318977 0.194857 0
0.322473 0.194611 0
0.325968 0.194356 0
0.329463 0.194093 0
0.332958 0.193821 0
0.319147 0.197352 0
0.322649 0.197106 0
0.326151 0.19685 0
0.329652 0.196587 0
0.333152 0.196315 0
0.332371 0.186325 0
0.335849 0.186048 0
0.339326 0.185763 0
0.342803 0.18547 0
0.346281 0.18517 0
0.332568 0.188827 0
0.33605 0.188548 0
0.339533 0.188262 0
0.343016 0.187969 0
0.346499 0.187668 0
0.332763 0.191325 0
0.336251 0.191046 0
0.33974 0.19076 0
0.343228 0.190466 0
0.346715 0.190164 0
0.332958 0.193821 0
0.336452 0.193542 0
0.339945 0.193255 0
0.343439 0.19296 0
0.346931 0.192658 0
0.333152 0.196315 0
0.336652 0.196035 0
0.340151 0.195747 0
0.343649 0.195452 0
0.347147 0.19515 0
0.346281 0.18517 0
0.349758 0.184863 0
0.353236 0.184549 0
0.356714 0.184229 0
0.360191 0.183902 0
0.346499 0.187668 0
0.349981 0.187361 0
0.353463 0.187046 0
0.356945 0.186725 0
0.360427 0.186398 0
0.346715 0.190164 0
0.350203 0.189856 0
0.35369 0.189541 0
0.357177 0.18922 0
0.360663 0.188892 0
0.346931 0.192658 0
0.350424 0.192349 0
0.353916 0.192034 0
0.357407 0.191712 0
0.360898 0.191383 0
0.347147 0.19515 0
0.350644 0.19484 0
0.354141 0.194524 0
0.357637 0.194202 0
0.361133 0.193873 0
0.360191 0.183902 0
0.363669 0.183569 0
0.367146 0.183231 0
0.370624 0.182886 0
0.374101 0.182536 0
0.360427 0.186398 0
0.363909 0.186064 0
0.367391 0.185725 0
0.370873 0.18538 0
0.374354 0.185029 0
0.360663 0.188892 0
0.364149 0.188558 0
0.367635 0.188217 0
0.371121 0.187872 0
0.374606 0.18752 0
0.360898 0.191383 0
0.364388 0.191049 0
0.367879 0.190708 0
0.371368 0.190362 0
0.374857 0.19001 0
0.361133 0.193873 0
0.364627 0.193538 0
0.368122 0.193197 0
0.371615 0.19285 0
0.375108 0.192498 0
0.374101 0.182536 0
0.377579 0.18218 0
0.381057 0.18182 0
0.384534 0.181454 0
0.388012 0.181083 0
0.374354 0.185029 0
0.377835 0.184673 0
0.381317 0.184311 0
0.384798 0.183945 0
0.388278 0.183574 0
0.374606 0.18752 0
0.378091 0.187164 0
0.381576 0.186802 0
0.38506 0.186435 0
0.388545 0.186063 0
0.374857 0.19001 0
0.378346 0.189653 0
0.381835 0.189291 0
0.385323 0.188923 0
0.38881 0.188551 0
0.375108 0.192498 0
0.378601 0.19214 0
0.382093 0.191778 0
0.385585 0.19141 0
0.389076 0.191037 0
0.388012 0.181083 0
0.391489 0.180708 0
0.394967 0.180328 0
0.398444 0.179944 0
0.401922 0.179556 0
0.388278 0.183574 0
0.391759 0.183198 0
0.39524 0.182818 0
0.39872 0.182433 0
0.402201 0.182045 0
0.388545 0.186063 0
0.392029 0.185687 0
0.395512 0.185306 0
0.398996 0.184921 0
0.402479 0.184532 0
0.38881 0.188551 0
0.392298 0.188174 0
0.395784 0.187793 0
0.399271 0.187408 0
0.402757 0.187018 0
0.389076 0.191037 0
0.392566 0.19066 0
0.396056 0.190279 0
0.399546 0.189893 0
0.403035 0.189503 0
0.401922 0.179556 0
0.405399 0.179164 0
0.408877 0.178767 0
0.412354 0.178368 0
0.415832 0.177964 0
0.402201 0.182045 0
0.405681 0.181652 0
0.409161 0.181255 0
0.412641 0.180855 0
0.416121 0.180451 0
0.402479 0.184532 0
0.405962 0.184139 0
0.409445 0.183742 0
0.412928 0.183341 0
0.41641 0.182937 0
0.402757 0.187018 0
0.406243 0.186625 0
0.409728 0.186227 0
0.413214 0.185826 0
0.416698 0.185422 0
0.403035 0.189503 0
0.406523 0.189109 0
0.410012 0.188711 0
0.413499 0.18831 0
0.416987 0.187905 0
0.415832 0.177964 0
0.419309 0.177557 0
0.422787 0.177147 0
0.426264 0.176734 0
0.429742 0.176318 0
0.416121 0.180451 0
0.419601 0.180044 0
0.423081 0.179633 0
0.42656 0.17922 0
0.43004 0.178803 0
0.41641 0.182937 0
0.419892 0.182529 0
0.423374 0.182118 0
0.426856 0.181704 0
0.430338 0.181287 0
0.416698 0.185422 0
0.420183 0.185014 0
0.423667 0.184602 0
0.427151 0.184188 0
0.430635 0.183771 0
0.416987 0.187905 0
0.420474 0.187497 0
0.42396 0.187085 0
0.427446 0.186671 0
0.430932 0.186253 0
0.429742 0.176318 0
0.433219 0.175899 0
0.436697 0.175477 0
0.440174 0.175053 0
0.443652 0.174626 0
0.43004 0.178803 0
0.433519 0.178384 0
0.436999 0.177961 0
0.440478 0.177537 0
0.443958 0.177109 0
0.430338 0.181287 0
0.433819 0.180868 0
0.4373 0.180445 0
0.440782 0.18002 0
0.444263 0.179592 0
0.430635 0.183771 0
0.434119 0.183351 0
0.437602 0.182928 0
0.441085 0.182502 0
0.444568 0.182075 0
0.430932 0.186253 0
0.434418 0.185833 0
0.437903 0.18541 0
0.441388 0.184984 0
0.444872 0.184556 0
0.443652 0.174626 0
0.44713 0.174196 0
0.450607 0.173765 0
0.454085 0.173331 0
0.457563 0.172895 0
0.443958 0.177109 0
0.447437 0.17668 0
0.450916 0.176248 0
0.454395 0.175814 0
0.457874 0.175378 0
0.444263 0.179592 0
0.447744 0.179162 0
0.451224 0.17873 0
0.454705 0.178296 0
0.458186 0.177859 0
0.444568 0.182075 0
0.44805 0.181644 0
0.451532 0.181212 0
0.455015 0.180777 0
0.458497 0.180341 0
0.444872 0.184556 0
0.448356 0.184126 0
0.45184 0.183693 0
0.455324 0.183258 0
0.458807 0.182821 0
0.457563 0.172895 0
0.461041 0.172457 0
0.464518 0.172018 0
0.467996 0.171576 0
0.471474 0.171133 0
0.457874 0.175378 0
0.461354 0.174939 0
0.464833 0.174499 0
0.468312 0.174058 0
0.471791 0.173615 0
0.458186 0.177859 0
0.461666 0.177421 0
0.465146 0.176981 0
0.468627 0.176539 0
0.472107 0.176095 0
0.458497 0.180341 0
0.461978 0.179902 0
0.46546 0.179462 0
0.468942 0.17902 0
0.472423 0.178576 0
0.458807 0.182821 0
0.462291 0.182383 0
0.465774 0.181942 0
0.469256 0.1815 0
0.472739 0.181056 0
0.471474 0.171133 0
0.474952 0.170688 0
0.47843 0.170242 0
0.481908 0.169795 0
0.485387 0.169346 0
0.471791 0.173615 0
0.47527 0.17317 0
0.478749 0.172723 0
0.482228 0.172276 0
0.485707 0.171827 0
0.472107 0.176095 0
0.475587 0.17565 0
0.479067 0.175204 0
0.482547 0.174756 0
0.486027 0.174307 0
0.472423 0.178576 0
0.475904 0.178131 0
0.479385 0.177684 0
0.482866 0.177236 0
0.486347 0.176787 0
0.472739 0.181056 0
0.476221 0.180611 0
0.479703 0.180164 0
0.483185 0.179716 0
0.486667 0.179266 0
0.485387 0.169346 0
0.488865 0.168896 0
0.492343 0.168445 0
0.495821 0.167993 0
0.4993 0.167539 0
0.485707 0.171827 0
0.489186 0.171376 0
0.492665 0.170925 0
0.496144 0.170473 0
0.499623 0.170019 0
0.486027 0.174307 0
0.489507 0.173856 0
0.492987 0.173405 0
0.496467 0.172952 0
0.499946 0.172499 0
0.486347 0.176787 0
0.489828 0.176336 0
0.493308 0.175884 0
0.496789 0.175432 0
0.500269 0.174978 0
0.486667 0.179266 0
0.490148 0.178815 0
0.49363 0.178364 0
0.497111 0.177911 0
0.500592 0.177457 0
0.4993 0.167539 0
0.502778 0.167085 0
0.506257 0.16663 0
0.509735 0.166174 0
0.513214 0.165718 0
0.499623 0.170019 0
0.503102 0.169565 0
0.506581 0.16911 0
0.51006 0.168654 0
0.51354 0.168197 0
0.499946 0.172499 0
0.503426 0.172044 0
0.506906 0.171589 0
0.510385 0.171133 0
0.513865 0.170676 0
0.500269 0.174978 0
0.50375 0.174524 0
0.50723 0.174068 0
0.51071 0.173612 0
0.51419 0.173155 0
0.500592 0.177457 0
0.504073 0.177002 0
0.507554 0.176547 0
0.511035 0.176091 0
0.514515 0.175634 0
0.513214 0.165718 0
0.516693 0.165261 0
0.520172 0.164803 0
0.523651 0.164344 0
0.527129 0.163885 0
0.51354 0.168197 0
0.517019 0.16774 0
0.520498 0.167282 0
0.523977 0.166823 0
0.527457 0.166364 0
0.513865 0.170676 0
0.517345 0.170219 0
0.520824 0.169761 0
0.524304 0.169302 0
0.527783 0.168843 0
0.51419 0.173155 0
0.51767 0.172698 0
0.52115 0.172239 0
0.52463 0.171781 0
0.52811 0.171322 0
0.514515 0.175634 0
0.517996 0.175176 0
0.521476 0.174718 0
0.524957 0.174259 0
0.528437 0.1738 0
0.527129 0.163885 0
0.530608 0.163426 0
[...]
POINT_DATA 1250
VECTORS displacement double
0 0 0
-4.09037e-05 -3.48474e-05 0
-8.07006e-05 -5.97979e-05 0
-0.000120578 -9.76555e-05 0
-0.00016062 -0.000149922 0
0 0 0
-2.57453e-05 -1.72999e-05 0
-5.80689e-05 -4.36626e-05 0
-8.85345e-05 -8.19916e-05 0
-0.000118254 -0.000134829 0
0 0 0
-1.59274e-05 -6.60202e-06 0
-3.65298e-05 -3.15033e-05 0
-5.727e-05 -7.0859e-05 0
-7.70216e-05 -0.000123787 0
0 0 0
-7.38737e-06 -1.12196e-06 0
-1.70101e-05 -2.45649e-05 0
-2.70678e-05 -6.41602e-05 0
-3.68122e-05 -0.000117721 0
0 0 0
6.44703e-07 3.80665e-07 0
1.50344e-06 -2.26792e-05 0
2.34603e-06 -6.24177e-05 0
3.01051e-06 -0.000116238 0
-0.00016062 -0.000149922 0
-0.000199681 -0.000216194 0
-0.000238309 -0.000295691 0
-0.000276142 -0.000388453 0
-0.000313395 -0.000494003 0
-0.000118254 -0.000134829 0
-0.000147614 -0.000201302 0
-0.000176475 -0.000281484 0
-0.000204941 -0.000374885 0
-0.000233043 -0.000481115 0
-7.70216e-05 -0.000123787 0
-9.65811e-05 -0.000191032 0
-0.000115805 -0.000271708 0
-0.000134868 -0.000365627 0
-0.000153827 -0.00047241 0
-3.68122e-05 -0.000117721 0
-4.63418e-05 -0.000185267 0
-5.59311e-05 -0.000266365 0
-6.55903e-05 -0.000360683 0
-7.5394e-05 -0.000467902 0
3.01051e-06 -0.000116238 0
3.41746e-06 -0.000184083 0
3.50541e-06 -0.000265414 0
3.2383e-06 -0.000360037 0
2.57932e-06 -0.000467542 0
-0.000313395 -0.000494003 0
-0.000350074 -0.000612086 0
-0.000386266 -0.000742318 0
-0.000421998 -0.000884403 0
-0.000457321 -0.00103802 0
-0.000233043 -0.000481115 0
-0.00026084 -0.000599864 0
-0.000288374 -0.000730798 0
-0.000315687 -0.000873595 0
-0.000342819 -0.00102794 0
-0.000153827 -0.00047241 0
-0.000172715 -0.000591726 0
-0.000191584 -0.000723244 0
-0.000210468 -0.00086664 0
-0.000229401 -0.0010216 0
-7.5394e-05 -0.000467902 0
-8.53783e-05 -0.000587662 0
-9.55782e-05 -0.000719651 0
-0.000106028 -0.000863535 0
-0.000116758 -0.001019 0
2.57932e-06 -0.000467542 0
1.49633e-06 -0.000587661 0
-4.09332e-08 -0.000720007 0
-2.06055e-06 -0.000864272 0
-4.58777e-06 -0.00102013 0
-0.000457321 -0.00103802 0
-0.00049227 -0.00120287 0
-0.000526888 -0.00137865 0
-0.000561206 -0.00156505 0
-0.000595258 -0.00176179 0
-0.000342819 -0.00102794 0
-0.000369807 -0.00119352 0
-0.000396683 -0.00137003 0
-0.000423479 -0.00155718 0
-0.000450221 -0.00175467 0
-0.000229401 -0.0010216 0
-0.000248415 -0.0011878 0
-0.000267538 -0.00136495 0
-0.000286798 -0.00155274 0
-0.000306218 -0.00175087 0
-0.000116758 -0.001019 0
-0.000127793 -0.00118572 0
-0.000139159 -0.00136339 0
-0.000150877 -0.00155172 0
-0.000162967 -0.0017504 0
-4.58777e-06 -0.00102013 0
-7.64544e-06 -0.00118727 0
-1.12536e-05 -0.00136537 0
-1.54298e-05 -0.00155414 0
-2.01893e-05 -0.00175326 0
-0.000595258 -0.00176179 0
-0.000629073 -0.00196858 0
-0.00066268 -0.00218513 0
-0.000696102 -0.00241118 0
-0.000729364 -0.00264645 0
-0.000450221 -0.00175467 0
-0.000476935 -0.0019622 0
-0.000503646 -0.00217951 0
-0.000530373 -0.00240631 0
-0.000557136 -0.00264233 0
-0.000306218 -0.00175087 0
-0.000325818 -0.00195906 0
-0.000345619 -0.00217702 0
-0.000365636 -0.00240447 0
-0.000385886 -0.00264115 0
-0.000162967 -0.0017504 0
-0.000175446 -0.00195914 0
-0.000188329 -0.00217766 0
-0.000201629 -0.00240568 0
-0.000215355 -0.00264292 0
-2.01893e-05 -0.00175326 0
-2.55449e-05 -0.00196246 0
-3.15075e-05 -0.00218145 0
-3.80858e-05 -0.00240994 0
-4.52867e-05 -0.00264765 0
-0.000729364 -0.00264645 0
-0.000762487 -0.00289068 0
-0.00079549 -0.00314361 0
-0.000828391 -0.00340498 0
-0.000861206 -0.00367454 0
-0.000557136 -0.00264233 0
-0.000583952 -0.0028873 0
-0.000610836 -0.00314097 0
-0.000637803 -0.00340308 0
-0.000664863 -0.00367337 0
-0.000385886 -0.00264115 0
-0.00040638 -0.00288678 0
-0.000427131 -0.0031411 0
-0.000448148 -0.00340385 0
-0.000469439 -0.00367479 0
-0.000215355 -0.00264292 0
-0.000229519 -0.00288911 0
-0.000244126 -0.003144 0
-0.000259184 -0.00340732 0
-0.000274695 -0.00367882 0
-4.52867e-05 -0.00264765 0
-5.31152e-05 -0.00289432 0
-6.1575e-05 -0.00314969 0
-7.06678e-05 -0.00341349 0
-8.03942e-05 -0.00368547 0
-0.000861206 -0.00367454 0
-0.000893948 -0.00395205 0
-0.000926631 -0.00423727 0
-0.000959266 -0.00452997 0
-0.000991864 -0.00482991 0
-0.000664863 -0.00367337 0
-0.000692028 -0.00395161 0
-0.000719307 -0.00423754 0
-0.000746707 -0.00453094 0
-0.000774234 -0.00483158 0
-0.000469439 -0.00367479 0
-0.000491011 -0.00395367 0
-0.000512869 -0.00424024 0
-0.000535017 -0.00453427 0
-0.000557459 -0.00483553 0
-0.000274695 -0.00367882 0
-0.000290663 -0.00395826 0
-0.00030709 -0.00424539 0
-0.000323976 -0.00453997 0
-0.00034132 -0.00484177 0
-8.03942e-05 -0.00368547 0
-9.07533e-05 -0.00396538 0
-0.000101743 -0.00425299 0
-0.00011336 -0.00454804 0
-0.000125601 -0.00485032 0
-0.000991864 -0.00482991 0
-0.00102443 -0.00513687 0
-0.00105698 -0.00545062 0
-0.00108952 -0.00577097 0
-0.00112204 -0.00609768 0
-0.000774234 -0.00483158 0
-0.000801896 -0.00513923 0
-0.000829694 -0.00545367 0
-0.000857634 -0.00577468 0
-0.000885717 -0.00610204 0
-0.000557459 -0.00483553 0
-0.000580195 -0.00514379 0
-0.000603228 -0.00545884 0
-0.000626556 -0.00578044 0
-0.000650178 -0.0061084 0
-0.00034132 -0.00484177 0
-0.000359121 -0.00515057 0
-0.000377375 -0.00546615 0
-0.00039608 -0.00578828 0
-0.00041523 -0.00611675 0
-0.000125601 -0.00485032 0
-0.000138459 -0.00515959 0
-0.000151929 -0.00547562 0
-0.000166003 -0.00579821 0
-0.000180674 -0.00612713 0
-0.00112204 -0.00609768 0
-0.00115457 -0.00643055 0
-0.00118709 -0.00676939 0
-0.00121962 -0.00711399 0
-0.00125216 -0.00746417 0
-0.000885717 -0.00610204 0
-0.000913944 -0.00643557 0
-0.000942317 -0.00677504 0
-0.000970836 -0.00712026 0
-0.000999499 -0.00747104 0
-0.000650178 -0.0061084 0
-0.000674093 -0.0064425 0
-0.000698298 -0.00678253 0
-0.00072279 -0.00712832 0
-0.000747565 -0.00747964 0
-0.00041523 -0.00611675 0
-0.000434821 -0.00645136 0
-0.000454846 -0.0067919 0
-0.0004753 -0.00713817 0
-0.000496174 -0.00748998 0
-0.000180674 -0.00612713 0
-0.000195933 -0.00646218 0
-0.000211771 -0.00680315 0
-0.000228179 -0.00714985 0
-0.000245146 -0.00750208 0
-0.00125216 -0.00746417 0
-0.0012847 -0.00781972 0
-0.00131726 -0.00818047 0
-0.00134982 -0.00854623 0
-0.00138239 -0.00891683 0
-0.000999499 -0.00747104 0
-0.00102831 -0.00782719 0
-0.00105725 -0.00818852 0
-0.00108634 -0.00855486 0
-0.00111556 -0.00892601 0
-0.000747565 -0.00747964 0
-0.000772618 -0.00783633 0
-0.000797944 -0.00819818 0
-0.000823539 -0.00856503 0
-0.000849395 -0.00893668 0
-0.000496174 -0.00748998 0
-0.000517462 -0.00784714 0
-0.000539155 -0.00820946 0
-0.000561245 -0.00857675 0
-0.000583723 -0.00894885 0
-0.000245146 -0.00750208 0
-0.000262661 -0.00785965 0
-0.000280713 -0.00822237 0
-0.000299291 -0.00859006 0
-0.000318383 -0.00896254 0
-0.00138239 -0.00891683 0
-0.00141498 -0.00929209 0
-0.00144757 -0.00967185 0
-0.00148017 -0.0100559 0
-0.00151278 -0.0104442 0
-0.00111556 -0.00892601 0
-0.00114492 -0.00930182 0
-0.0011744 -0.00968211 0
-0.00120401 -0.0100667 0
-0.00123374 -0.0104555 0
-0.000849395 -0.00893668 0
-0.000875507 -0.00931297 0
-0.000901868 -0.00969374 0
-0.000928472 -0.0100788 0
-0.00095531 -0.010468 0
-0.000583723 -0.00894885 0
-0.00060658 -0.00932558 0
-0.000629806 -0.00970676 0
-0.000653392 -0.0100922 0
-0.000677326 -0.0104818 0
-0.000318383 -0.00896254 0
-0.000337976 -0.00933964 0
-0.000358059 -0.00972119 0
-0.000378618 -0.010107 0
-0.000399642 -0.010497 0
-0.00151278 -0.0104442 0
-0.00154539 -0.0108364 0
-0.001578 -0.0112326 0
-0.00161061 -0.0116324 0
-0.00164323 -0.0120358 0
-0.00123374 -0.0104555 0
-0.00126359 -0.0108482 0
-0.00129355 -0.0112448 0
-0.00132361 -0.0116451 0
-0.00135377 -0.0120489 0
-0.00095531 -0.010468 0
-0.000982376 -0.0108612 0
-0.00100966 -0.0112582 0
-0.00103716 -0.0116589 0
-0.00106486 -0.0120631 0
-0.000677326 -0.0104818 0
-0.000701601 -0.0108754 0
-0.000726204 -0.0112728 0
-0.000751127 -0.0116739 0
-0.000776357 -0.0120785 0
-0.000399642 -0.010497 0
-0.000421117 -0.0108909 0
-0.00044303 -0.0112886 0
-0.000465368 -0.01169 0
-0.000488119 -0.0120949 0
-0.00164323 -0.0120358 0
-0.00167583 -0.0124426 0
-0.00170843 -0.0128526 0
-0.00174101 -0.0132658 0
-0.00177359 -0.013682 0
-0.00135377 -0.0120489 0
-0.00138403 -0.0124561 0
-0.00141438 -0.0128666 0
-0.00144482 -0.0132802 0
-0.00147533 -0.0136968 0
-0.00106486 -0.0120631 0
-0.00109276 -0.0124708 0
-0.00112085 -0.0128816 0
-0.00114912 -0.0132956 0
-0.00117756 -0.0137126 0
-0.000776357 -0.0120785 0
-0.000801886 -0.0124864 0
-0.000827701 -0.0128976 0
-0.000853794 -0.0133119 0
-0.000880152 -0.0137292 0
-0.000488119 -0.0120949 0
-0.000511268 -0.0125031 0
-0.000534803 -0.0129146 0
-0.000558712 -0.0133292 0
-0.00058298 -0.0137467 0
-0.00177359 -0.013682 0
-0.00180614 -0.0141011 0
-0.00183867 -0.014523 0
-0.00187118 -0.0149474 0
-0.00190367 -0.0153744 0
-0.00147533 -0.0136968 0
-0.00150592 -0.0141163 0
-0.00153657 -0.0145385 0
-0.00156729 -0.0149633 0
-0.00159807 -0.0153906 0
-0.00117756 -0.0137126 0
-0.00120617 -0.0141324 0
-0.00123493 -0.0145549 0
-0.00126384 -0.01498 0
-0.00129289 -0.0154076 0
-0.000880152 -0.0137292 0
-0.000906766 -0.0141493 0
-0.000933626 -0.0145721 0
-0.00096072 -0.0149975 0
-0.00098804 -0.0154254 0
-0.00058298 -0.0137467 0
-0.000607595 -0.0141671 0
-0.000632544 -0.0145901 0
-0.000657815 -0.0150158 0
-0.000683395 -0.0154439 0
-0.00190367 -0.0153744 0
-0.00193612 -0.0158037 0
-0.00196854 -0.0162354 0
-0.00200092 -0.0166691 0
-0.00203326 -0.017105 0
-0.00159807 -0.0153906 0
-0.00162889 -0.0158203 0
-0.00165976 -0.0162523 0
-0.00169067 -0.0166864 0
-0.00172162 -0.0171225 0
-0.00129289 -0.0154076 0
-0.00132208 -0.0158376 0
-0.00135139 -0.0162698 0
-0.00138081 -0.0167042 0
-0.00141035 -0.0171406 0
-0.00098804 -0.0154254 0
-0.00101557 -0.0158556 0
-0.00104331 -0.0162881 0
-0.00107125 -0.0167227 0
-0.00109937 -0.0171593 0
-0.000683395 -0.0154439 0
-0.000709272 -0.0158743 0
-0.000735433 -0.016307 0
-0.000761866 -0.0167418 0
-0.000788559 -0.0171787 0
-0.00203326 -0.017105 0
-0.00206556 -0.0175428 0
-0.00209782 -0.0179825 0
-0.00213002 -0.0184239 0
-0.00216218 -0.0188669 0
-0.00172162 -0.0171225 0
-0.00175259 -0.0175606 0
-0.0017836 -0.0180005 0
-0.00181462 -0.0184422 0
-0.00184566 -0.0188855 0
-0.00141035 -0.0171406 0
-0.00143999 -0.0175789 0
-0.00146973 -0.0180191 0
-0.00149955 -0.018461 0
-0.00152946 -0.0189045 0
-0.00109937 -0.0171593 0
-0.00112766 -0.0175979 0
-0.00115612 -0.0180382 0
-0.00118474 -0.0184803 0
-0.00121351 -0.018924 0
-0.000788559 -0.0171787 0
-0.000815502 -0.0176174 0
-0.000842682 -0.0180579 0
-0.000870088 -0.0185002 0
-0.000897709 -0.018944 0
-0.00216218 -0.0188669 0
-0.00219428 -0.0193116 0
-0.00222633 -0.0197577 0
-0.00225833 -0.0202052 0
-0.00229026 -0.020654 0
-0.00184566 -0.0188855 0
-0.00187671 -0.0193303 0
-0.00190776 -0.0197767 0
-0.00193882 -0.0202244 0
-0.00196988 -0.0206734 0
-0.00152946 -0.0189045 0
-0.00155944 -0.0193496 0
-0.0015895 -0.0197961 0
-0.00161961 -0.020244 0
-0.00164978 -0.0206932 0
-0.00121351 -0.018924 0
-0.00124241 -0.0193693 0
-0.00127145 -0.019816 0
-0.00130062 -0.020264 0
-0.00132989 -0.0207134 0
-0.000897709 -0.018944 0
-0.000925535 -0.0193894 0
-0.000953554 -0.0198363 0
-0.000981758 -0.0202845 0
-0.00101014 -0.0207339 0
-0.00229026 -0.020654 0
-0.00232213 -0.021104 0
-0.00235395 -0.0215552 0
-0.00238569 -0.0220074 0
-0.00241738 -0.0224606 0
-0.00196988 -0.0206734 0
-0.00200094 -0.0211236 0
-0.00203198 -0.021575 0
-0.00206302 -0.0220274 0
-0.00209404 -0.0224808 0
-0.00164978 -0.0206932 0
-0.00168001 -0.0211436 0
-0.00171028 -0.0215951 0
-0.00174059 -0.0220476 0
-0.00177094 -0.0225012 0
-0.00132989 -0.0207134 0
-0.00135928 -0.0211639 0
-0.00138877 -0.0216155 0
-0.00141835 -0.0220682 0
-0.00144801 -0.0225219 0
-0.00101014 -0.0207339 0
-0.00103868 -0.0211846 0
-0.00106737 -0.0216363 0
-0.00109622 -0.0220891 0
-0.0011252 -0.0225429 0
-0.00241738 -0.0224606 0
-0.002449 -0.0229148 0
-0.00248055 -0.0233698 0
-0.00251204 -0.0238256 0
-0.00254347 -0.0242822 0
-0.00209404 -0.0224808 0
-0.00212505 -0.0229351 0
-0.00215603 -0.0233903 0
-0.002187 -0.0238462 0
-0.00221794 -0.0243029 0
-0.00177094 -0.0225012 0
-0.00180132 -0.0229556 0
-0.00183173 -0.0234109 0
-0.00186216 -0.023867 0
-0.00189261 -0.0243238 0
-0.00144801 -0.0225219 0
-0.00147776 -0.0229764 0
-0.00150758 -0.0234318 0
-0.00153747 -0.023888 0
-0.00156742 -0.0243449 0
-0.0011252 -0.0225429 0
-0.00115431 -0.0229975 0
-0.00118353 -0.023453 0
-0.00121288 -0.0239092 0
-0.00124232 -0.0243662 0
-0.00254347 -0.0242822 0
-0.00257483 -0.0247394 0
-0.00260612 -0.0251973 0
-0.00263735 -0.0256557 0
-0.00266852 -0.0261146 0
-0.00221794 -0.0243029 0
-0.00224886 -0.0247602 0
-0.00227975 -0.0252182 0
-0.00231061 -0.0256767 0
-0.00234145 -0.0261357 0
-0.00189261 -0.0243238 0
-0.00192307 -0.0247812 0
-0.00195355 -0.0252392 0
-0.00198404 -0.0256978 0
-0.00201454 -0.0261569 0
-0.00156742 -0.0243449 0
-0.00159743 -0.0248024 0
-0.00162749 -0.0252605 0
-0.00165759 -0.0257191 0
-0.00168774 -0.0261783 0
-0.00124232 -0.0243662 0
-0.00127187 -0.0248237 0
-0.0013015 -0.0252819 0
-0.00133122 -0.0257406 0
-0.00136102 -0.0261998 0
-0.00266852 -0.0261146 0
-0.00269962 -0.0265739 0
-0.00273066 -0.0270337 0
-0.00276165 -0.0274938 0
-0.00279258 -0.0279543 0
-0.00234145 -0.0261357 0
-0.00237225 -0.0265951 0
-0.00240303 -0.027055 0
-0.00243378 -0.0275152 0
-0.0024645 -0.0279757 0
-0.00201454 -0.0261569 0
-0.00204504 -0.0266164 0
-0.00207554 -0.0270764 0
-0.00210604 -0.0275366 0
-0.00213654 -0.0279972 0
-0.00168774 -0.0261783 0
-0.00171793 -0.0266379 0
-0.00174815 -0.0270978 0
-0.0017784 -0.0275582 0
-0.00180868 -0.0280188 0
-0.00136102 -0.0261998 0
-0.00139089 -0.0266594 0
-0.00142082 -0.0271195 0
-0.00145082 -0.0275798 0
-0.00148087 -0.0280405 0
-0.00279258 -0.0279543 0
-0.00282345 -0.0284151 0
-0.00285427 -0.0288761 0
-0.00288504 -0.0293373 0
-0.00291577 -0.0297987 0
-0.0024645 -0.0279757 0
-0.00249519 -0.0284366 0
-0.00252585 -0.0288976 0
-0.00255649 -0.0293589 0
-0.0025871 -0.0298203 0
-0.00213654 -0.0279972 0
-0.00216704 -0.0284581 0
-0.00219754 -0.0289192 0
-0.00222804 -0.0293805 0
-0.00225853 -0.029842 0
-0.00180868 -0.0280188 0
-0.00183898 -0.0284797 0
-0.00186931 -0.0289408 0
-0.00189965 -0.0294022 0
-0.00193002 -0.0298637 0
-0.00148087 -0.0280405 0
-0.00151097 -0.0285014 0
-0.00154112 -0.0289626 0
-0.00157132 -0.0294239 0
-0.00160155 -0.0298854 0
-0.00291577 -0.0297987 0
-0.00294645 -0.0302603 0
-0.0029771 -0.030722 0
-0.00300771 -0.0311838 0
-0.00303829 -0.0316456 0
-0.0025871 -0.0298203 0
-0.00261769 -0.0302819 0
-0.00264826 -0.0307436 0
-0.00267881 -0.0312055 0
-0.00270934 -0.0316673 0
-0.00225853 -0.029842 0
-0.00228901 -0.0303036 0
-0.0023195 -0.0307654 0
-0.00234998 -0.0312272 0
-0.00238045 -0.0316891 0
-0.00193002 -0.0298637 0
-0.00196039 -0.0303253 0
-0.00199079 -0.0307871 0
-0.00202119 -0.0312489 0
-0.00205161 -0.0317108 0
-0.00160155 -0.0298854 0
-0.00163181 -0.0303471 0
-0.00166211 -0.0308089 0
-0.00169244 -0.0312707 0
-0.00172279 -0.0317326 0
-0.00303829 -0.0316456 0
-0.00306884 -0.0321075 0
-0.00309937 -0.0325695 0
-0.00312989 -0.0330315 0
-0.00316039 -0.0334935 0
-0.00270934 -0.0316673 0
-0.00273986 -0.0321293 0
-0.00277037 -0.0325913 0
-0.00280087 -0.0330533 0
-0.00283136 -0.0335153 0
-0.00238045 -0.0316891 0
-0.00241093 -0.032151 0
-0.00244141 -0.032613 0
-0.00247188 -0.033075 0
-0.00250237 -0.033537 0
-0.00205161 -0.0317108 0
-0.00208204 -0.0321728 0
-0.00211248 -0.0326348 0
-0.00214293 -0.0330968 0
-0.0021734 -0.0335588 0
-0.00172279 -0.0317326 0
-0.00175317 -0.0321946 0
-0.00178358 -0.0326566 0
-0.001814 -0.0331186 0
-0.00184444 -0.0335806 0
-0.00316039 -0.0334935 0
-0.00319089 -0.0339555 0
-0.00322138 -0.0344175 0
-0.00325189 -0.0348795 0
-0.00328241 -0.0353414 0
-0.00283136 -0.0335153 0
-0.00286186 -0.0339773 0
-0.00289236 -0.0344393 0
-0.00292287 -0.0349012 0
-0.00295339 -0.0353632 0
-0.00250237 -0.033537 0
-0.00253286 -0.033999 0
-0.00256335 -0.034461 0
-0.00259386 -0.034923 0
-0.00262439 -0.0353849 0
-0.0021734 -0.0335588 0
-0.00220387 -0.0340208 0
-0.00223436 -0.0344828 0
-0.00226487 -0.0349447 0
-0.00229539 -0.0354067 0
-0.00184444 -0.0335806 0
-0.00187491 -0.0340425 0
-0.00190539 -0.0345045 0
-0.00193589 -0.0349665 0
-0.0019664 -0.0354284 0
0 0 0
6.44703e-07 3.80665e-07 0
1.50344e-06 -2.26792e-05 0
2.34603e-06 -6.24177e-05 0
3.01051e-06 -0.000116238 0
0 0 0
8.68059e-06 -1.81803e-06 0
2.00214e-05 -2.57304e-05 0
3.17386e-05 -6.56648e-05 0
4.2787e-05 -0.000119518 0
0 0 0
1.72346e-05 -8.00953e-06 0
3.95588e-05 -3.37939e-05 0
6.18731e-05 -7.37946e-05 0
8.2828e-05 -0.000127298 0
0 0 0
2.71019e-05 -1.94408e-05 0
6.11319e-05 -4.69764e-05 0
9.2985e-05 -8.61869e-05 0
0.000123743 -0.000139922 0
0 0 0
4.25605e-05 -3.77255e-05 0
8.37426e-05 -6.38795e-05 0
0.000124718 -0.00010286 0
0.000165576 -0.00015635 0
3.01051e-06 -0.000116238 0
3.41746e-06 -0.000184083 0
3.50541e-06 -0.000265414 0
3.2383e-06 -0.000360037 0
2.57932e-06 -0.000467542 0
4.2787e-05 -0.000119518 0
5.3095e-05 -0.000187392 0
6.2841e-05 -0.000268878 0
7.19472e-05 -0.000363646 0
8.04188e-05 -0.000471376 0
8.2828e-05 -0.000127298 0
0.000103087 -0.000195215 0
0.0001224 -0.000276674 0
0.00014086 -0.000371504 0
0.000158446 -0.000479316 0
0.000123743 -0.000139922 0
0.000153674 -0.000207407 0
0.000182525 -0.000288791 0
0.000210309 -0.00038358 0
0.000236976 -0.00049137 0
0.000165576 -0.00015635 0
0.000205041 -0.00022403 0
0.000243555 -0.000305177 0
0.000280608 -0.000399825 0
0.000316345 -0.000507486 0
2.57932e-06 -0.000467542 0
1.49633e-06 -0.000587661 0
-4.09332e-08 -0.000720007 0
-2.06055e-06 -0.000864272 0
-4.58777e-06 -0.00102013 0
8.04188e-05 -0.000471376 0
8.82256e-05 -0.0005917 0
9.53409e-05 -0.000724301 0
0.000101743 -0.00086884 0
0.00010741 -0.00102499 0
0.000158446 -0.000479316 0
0.000175123 -0.000599767 0
0.000190878 -0.000732514 0
0.000205687 -0.000877224 0
0.000219535 -0.00103357 0
0.000236976 -0.00049137 0
0.000262506 -0.000611837 0
0.000286878 -0.000744627 0
0.000310074 -0.000889406 0
0.000332084 -0.00104584 0
0.000316345 -0.000507486 0
0.000350682 -0.000627885 0
0.000383647 -0.000760616 0
0.000415204 -0.000905365 0
0.000445351 -0.0010618 0
-4.58777e-06 -0.00102013 0
-7.64544e-06 -0.00118727 0
-1.12536e-05 -0.00136537 0
-1.54298e-05 -0.00155414 0
-2.01893e-05 -0.00175326 0
0.00010741 -0.00102499 0
0.000112323 -0.00119244 0
0.000116467 -0.00137087 0
0.000119828 -0.00155998 0
0.000122395 -0.00175946 0
0.000219535 -0.00103357 0
0.000232407 -0.00120123 0
0.000244291 -0.00137989 0
0.000255177 -0.00156924 0
0.00026506 -0.00176898 0
0.000332084 -0.00104584 0
0.000352896 -0.00121362 0
0.000372502 -0.00139241 0
0.000390899 -0.00158191 0
0.000408083 -0.00178181 0
0.000445351 -0.0010618 0
0.000474079 -0.00122959 0
0.000501386 -0.00140842 0
0.000527271 -0.00159797 0
0.000551735 -0.00179795 0
-2.01893e-05 -0.00175326 0
-2.55449e-05 -0.00196246 0
-3.15075e-05 -0.00218145 0
-3.80858e-05 -0.00240994 0
-4.52867e-05 -0.00264765 0
0.000122395 -0.00175946 0
0.000124159 -0.00196902 0
0.000125113 -0.00218838 0
0.000125253 -0.00241725 0
0.000124577 -0.00265535 0
0.00026506 -0.00176898 0
0.000273935 -0.00197881 0
0.000281798 -0.00219845 0
0.000288649 -0.00242761 0
0.00029449 -0.002666 0
0.000408083 -0.00178181 0
0.000424054 -0.00199183 0
0.000438812 -0.00221166 0
0.000452361 -0.00244102 0
0.000464706 -0.00267963 0
0.000551735 -0.00179795 0
0.000574782 -0.00200806 0
0.000596416 -0.00222799 0
0.000616645 -0.00245746 0
0.000635478 -0.0026962 0
-4.52867e-05 -0.00264765 0
-5.31152e-05 -0.00289432 0
-6.1575e-05 -0.00314969 0
-7.06678e-05 -0.00341349 0
-8.03942e-05 -0.00368547 0
0.000124577 -0.00265535 0
0.000123082 -0.00290241 0
0.000120769 -0.00315817 0
0.00011764 -0.00342237 0
0.000113699 -0.00369474 0
0.00029449 -0.002666 0
0.000299322 -0.00291337 0
0.00030315 -0.00316944 0
0.00030598 -0.00343395 0
0.000307819 -0.00370665 0
0.000464706 -0.00267963 0
0.000475854 -0.00292721 0
0.000485813 -0.00318351 0
0.000494591 -0.00344825 0
0.0005022 -0.00372119 0
0.000635478 -0.0026962 0
0.000652925 -0.00294393 0
0.000668998 -0.00320037 0
0.000683709 -0.00346526 0
0.000697075 -0.00373836 0
-8.03942e-05 -0.00368547 0
-9.07533e-05 -0.00396538 0
-0.000101743 -0.00425299 0