# vtk DataFile Version 3.0
ASCII
DATASET UNSTRUCTURED_GRID

POINTS 864 double
0.24899 0.19 0
0.255421 0.189945 0
0.261847 0.189871 0
0.268276 0.189751 0
0.24899 0.192222 0
0.25544 0.192183 0
0.26188 0.192108 0
0.268325 0.191988 0
0.24899 0.194444 0
0.255456 0.194417 0
0.261912 0.194342 0
0.268373 0.19422 0
0.24899 0.196667 0
0.25547 0.196647 0
0.261944 0.196572 0
0.26842 0.196449 0
0.268276 0.189751 0
0.274708 0.189585 0
0.281144 0.189376 0
0.287583 0.189127 0
0.268325 0.191988 0
0.274772 0.191821 0
0.281222 0.191611 0
0.287674 0.191361 0
0.268373 0.19422 0
0.274835 0.194053 0
0.281299 0.193843 0
0.287765 0.193592 0
0.26842 0.196449 0
0.274898 0.196282 0
0.281376 0.196072 0
0.287856 0.195821 0
0.287583 0.189127 0
0.294024 0.188838 0
0.300469 0.188512 0
0.306916 0.188151 0
0.287674 0.191361 0
0.294129 0.191072 0
0.300586 0.190745 0
0.307045 0.190384 0
0.287765 0.193592 0
0.294233 0.193303 0
0.300702 0.192976 0
0.307173 0.192614 0
0.287856 0.195821 0
0.294336 0.195531 0
0.300818 0.195204 0
0.307301 0.194841 0
0.306916 0.188151 0
0.313366 0.187757 0
0.319818 0.18733 0
0.326273 0.186874 0
0.307045 0.190384 0
0.313506 0.189989 0
0.319968 0.189562 0
0.326433 0.189105 0
0.307173 0.192614 0
0.313645 0.192218 0
0.320119 0.191791 0
0.326593 0.191334 0
0.307301 0.194841 0
0.313784 0.194446 0
0.320268 0.194018 0
0.326753 0.193561 0
0.326273 0.186874 0
0.33273 0.186389 0
0.33919 0.185877 0
0.345652 0.185339 0
0.326433 0.189105 0
0.3329 0.18862 0
0.339369 0.188107 0
0.345839 0.187569 0
0.326593 0.191334 0
0.33307 0.190848 0
0.339547 0.190335 0
0.346026 0.189797 0
0.326753 0.193561 0
0.333239 0.193075 0
0.339726 0.192562 0
0.346213 0.192023 0
0.345652 0.185339 0
0.352116 0.184778 0
0.358582 0.184193 0
0.36505 0.183588 0
0.345839 0.187569 0
0.352311 0.187007 0
0.358785 0.186422 0
0.36526 0.185816 0
0.346026 0.189797 0
0.352506 0.189235 0
0.358988 0.18865 0
0.36547 0.188043 0
0.346213 0.192023 0
0.352701 0.19146 0
0.35919 0.190875 0
0.365679 0.190269 0
0.36505 0.183588 0
0.37152 0.182962 0
0.377992 0.182317 0
0.384465 0.181655 0
0.36526 0.185816 0
0.371737 0.18519 0
0.378215 0.184545 0
0.384694 0.183882 0
0.36547 0.188043 0
0.371953 0.187417 0
0.378438 0.186771 0
0.384923 0.186108 0
0.365679 0.190269 0
0.37217 0.189642 0
0.37866 0.188996 0
0.385152 0.188333 0
0.384465 0.181655 0
0.390941 0.180976 0
0.397418 0.180281 0
0.403897 0.179572 0
0.384694 0.183882 0
0.391175 0.183203 0
0.397658 0.182508 0
0.404141 0.181799 0
0.384923 0.186108 0
0.39141 0.185429 0
0.397897 0.184734 0
0.404385 0.184024 0
0.385152 0.188333 0
0.391643 0.187653 0
0.398136 0.186958 0
0.404629 0.186248 0
0.403897 0.179572 0
0.410377 0.17885 0
0.416858 0.178115 0
0.423341 0.177369 0
0.404141 0.181799 0
0.410626 0.181076 0
0.417111 0.180341 0
0.423598 0.179595 0
0.404385 0.184024 0
0.410874 0.183301 0
0.417364 0.182566 0
0.423855 0.181819 0
0.404629 0.186248 0
0.411122 0.185525 0
0.417616 0.18479 0
0.424111 0.184043 0
0.423341 0.177369 0
0.429826 0.176612 0
0.436311 0.175845 0
0.442798 0.17507 0
0.423598 0.179595 0
0.430086 0.178837 0
0.436575 0.17807 0
0.443065 0.177294 0
0.423855 0.181819 0
0.430346 0.181062 0
0.436838 0.180295 0
0.443331 0.179519 0
0.424111 0.184043 0
0.430606 0.183286 0
0.437101 0.182518 0
0.443597 0.181742 0
0.442798 0.17507 0
0.449286 0.174286 0
0.455775 0.173494 0
0.462265 0.172696 0
0.443065 0.177294 0
0.449555 0.17651 0
0.456047 0.175718 0
0.462539 0.17492 0
0.443331 0.179519 0
0.449824 0.178734 0
0.456318 0.177942 0
0.462813 0.177144 0
0.443597 0.181742 0
0.450093 0.180958 0
0.456589 0.180166 0
0.463086 0.179367 0
0.462265 0.172696 0
0.468756 0.171891 0
0.475248 0.171081 0
0.481741 0.170266 0
0.462539 0.17492 0
0.469032 0.174115 0
0.475526 0.173305 0
0.48202 0.17249 0
0.462813 0.177144 0
0.469308 0.176339 0
0.475803 0.175528 0
0.482299 0.174713 0
0.463086 0.179367 0
0.469583 0.178562 0
0.476081 0.177751 0
0.482578 0.176936 0
0.481741 0.170266 0
0.488235 0.169447 0
0.494729 0.168623 0
0.501224 0.167796 0
0.48202 0.17249 0
0.488515 0.17167 0
0.495011 0.170847 0
0.501507 0.17002 0
0.482299 0.174713 0
0.488796 0.173893 0
0.495293 0.17307 0
0.50179 0.172243 0
0.482578 0.176936 0
0.489076 0.176116 0
0.495575 0.175292 0
0.502073 0.174465 0
0.501224 0.167796 0
0.50772 0.166967 0
0.514216 0.166134 0
0.520713 0.165299 0
0.501507 0.17002 0
0.508004 0.16919 0
0.514501 0.168357 0
0.520999 0.167522 0
0.50179 0.172243 0
0.508288 0.171412 0
0.514786 0.17058 0
0.521284 0.169745 0
0.502073 0.174465 0
0.508572 0.173635 0
0.515071 0.172802 0
0.52157 0.171967 0
0.520713 0.165299 0
0.527211 0.164463 0
0.533709 0.163625 0
0.540207 0.162786 0
0.520999 0.167522 0
0.527497 0.166686 0
0.533995 0.165848 0
0.540494 0.165008 0
0.521284 0.169745 0
0.527783 0.168908 0
0.534282 0.16807 0
0.540781 0.167231 0
0.52157 0.171967 0
0.528069 0.171131 0
0.534568 0.170292 0
0.541068 0.169453 0
0.540207 0.162786 0
0.546706 0.161945 0
0.553205 0.161104 0
0.559704 0.160263 0
0.540494 0.165008 0
0.546993 0.164168 0
0.553492 0.163327 0
0.559992 0.162485 0
0.540781 0.167231 0
0.54728 0.16639 0
0.55378 0.165549 0
0.56028 0.164707 0
0.541068 0.169453 0
0.547568 0.168612 0
0.554067 0.167771 0
0.560567 0.166929 0
0.559704 0.160263 0
0.566204 0.15942 0
0.572704 0.158578 0
0.579204 0.157736 0
0.559992 0.162485 0
0.566492 0.161643 0
0.572992 0.1608 0
0.579492 0.159958 0
0.56028 0.164707 0
0.56678 0.163865 0
0.57328 0.163023 0
0.57978 0.16218 0
0.560567 0.166929 0
0.567067 0.166087 0
0.573567 0.165245 0
0.580068 0.164402 0
0.579204 0.157736 0
0.585704 0.156893 0
0.592204 0.156051 0
0.598704 0.155208 0
0.579492 0.159958 0
0.585992 0.159115 0
0.592492 0.158273 0
0.598992 0.15743 0
0.57978 0.16218 0
0.58628 0.161338 0
0.59278 0.160495 0
0.59928 0.159653 0
0.580068 0.164402 0
0.586568 0.16356 0
0.593068 0.162717 0
0.599568 0.161875 0
0.24899 0.196667 0
0.25547 0.196647 0
0.261944 0.196572 0
0.26842 0.196449 0
0.24899 0.198889 0
0.255483 0.198873 0
0.261975 0.198798 0
0.268467 0.198675 0
0.24899 0.201111 0
0.255497 0.201095 0
0.262006 0.201021 0
0.268514 0.200897 0
0.24899 0.203333 0
0.255511 0.203314 0
0.262037 0.203239 0
0.268561 0.203116 0
0.26842 0.196449 0
0.274899 0.19624 0
0.281377 0.19603 0
0.287856 0.195821 0
0.268467 0.198671 0
0.27496 0.198462 0
0.281453 0.198252 0
0.287946 0.198043 0
0.268514 0.200894 0
0.275021 0.200684 0
0.281529 0.200475 0
0.288036 0.200265 0
0.268561 0.203116 0
0.275083 0.202906 0
0.281605 0.202697 0
0.288126 0.202487 0
0.287856 0.195821 0
0.294337 0.195494 0
0.300819 0.195168 0
0.307301 0.194841 0
0.287946 0.198043 0
0.29444 0.197716 0
0.300934 0.19739 0
0.307428 0.197064 0
0.288036 0.200265 0
0.294543 0.199939 0
0.301049 0.199612 0
0.307555 0.199286 0
0.288126 0.202487 0
0.294645 0.202161 0
0.301164 0.201834 0
0.307683 0.201508 0
0.307301 0.194841 0
0.313785 0.194414 0
0.320269 0.193988 0
0.326753 0.193561 0
0.307428 0.197064 0
0.313923 0.196637 0
0.320418 0.19621 0
0.326913 0.195783 0
0.307555 0.199286 0
0.314061 0.198859 0
0.320566 0.198432 0
0.327072 0.198005 0
0.307683 0.201508 0
0.314199 0.201081 0
0.320715 0.200654 0
0.327231 0.200227 0
0.326753 0.193561 0
0.33324 0.193048 0
0.339726 0.192536 0
0.346213 0.192023 0
0.326913 0.195783 0
0.333408 0.19527 0
0.339904 0.194758 0
0.3464 0.194245 0
0.327072 0.198005 0
0.333577 0.197493 0
0.340081 0.19698 0
0.346586 0.196468 0
0.327231 0.200227 0
0.333745 0.199715 0
0.340259 0.199202 0
0.346773 0.19869 0
0.346213 0.192023 0
0.352702 0.191438 0
0.359191 0.190853 0
0.365679 0.190269 0
0.3464 0.194245 0
0.352896 0.19366 0
0.359392 0.193076 0
0.365889 0.192491 0
0.346586 0.196468 0
0.35309 0.195883 0
0.359594 0.195298 0
0.366098 0.194713 0
0.346773 0.19869 0
0.353284 0.198105 0
0.359796 0.19752 0
0.366307 0.196935 0
0.365679 0.190269 0
0.37217 0.189623 0
0.378661 0.188978 0
0.385152 0.188333 0
0.365889 0.192491 0
0.372386 0.191846 0
0.378883 0.1912 0
0.38538 0.190555 0
0.366098 0.194713 0
0.372601 0.194068 0
0.379105 0.193423 0
0.385608 0.192777 0
0.366307 0.196935 0
0.372817 0.19629 0
0.379327 0.195645 0
0.385836 0.195 0
0.385152 0.188333 0
0.391644 0.187638 0
0.398136 0.186943 0
0.404629 0.186248 0
0.38538 0.190555 0
0.391877 0.18986 0
0.398375 0.189166 0
0.404873 0.188471 0
0.385608 0.192777 0
0.392111 0.192083 0
0.398614 0.191388 0
0.405116 0.190693 0
0.385836 0.195 0
0.392344 0.194305 0
0.398852 0.19361 0
0.40536 0.192915 0
0.404629 0.186248 0
0.411123 0.185513 0
0.417617 0.184778 0
0.424111 0.184043 0
0.404873 0.188471 0
0.411371 0.187736 0
0.417869 0.187 0
0.424367 0.186265 0
0.405116 0.190693 0
0.411619 0.189958 0
0.418121 0.189223 0
0.424623 0.188488 0
0.40536 0.192915 0
0.411866 0.19218 0
0.418373 0.191445 0
0.424879 0.19071 0
0.424111 0.184043 0
0.430606 0.183276 0
0.437101 0.182509 0
0.443597 0.181742 0
0.424367 0.186265 0
0.430866 0.185498 0
0.437364 0.184731 0
0.443863 0.183964 0
0.424623 0.188488 0
0.431125 0.187721 0
0.437627 0.186954 0
0.444128 0.186187 0
0.424879 0.19071 0
0.431384 0.189943 0
0.437889 0.189176 0
0.444394 0.188409 0
0.443597 0.181742 0
0.450093 0.18095 0
0.45659 0.180159 0
0.463086 0.179367 0
0.443863 0.183964 0
0.450362 0.183173 0
0.45686 0.182381 0
0.463359 0.181589 0
0.444128 0.186187 0
0.45063 0.185395 0
0.457131 0.184603 0
0.463633 0.183811 0
0.444394 0.188409 0
0.450898 0.187617 0
0.457402 0.186825 0
0.463906 0.186034 0
0.463086 0.179367 0
0.469584 0.178557 0
0.476081 0.177746 0
0.482578 0.176936 0
0.463359 0.181589 0
0.469859 0.180779 0
0.476358 0.179969 0
0.482857 0.179158 0
0.463633 0.183811 0
0.470134 0.183001 0
0.476635 0.182191 0
0.483136 0.18138 0
0.463906 0.186034 0
0.470409 0.185223 0
0.476912 0.184413 0
0.483415 0.183603 0
0.482578 0.176936 0
0.489077 0.176112 0
0.495575 0.175289 0
0.502073 0.174465 0
0.482857 0.179158 0
0.489357 0.178335 0
0.495856 0.177511 0
0.502356 0.176687 0
0.483136 0.18138 0
0.489637 0.180557 0
0.496138 0.179733 0
0.502639 0.17891 0
0.483415 0.183603 0
0.489917 0.182779 0
0.496419 0.181956 0
0.502921 0.181132 0
0.502073 0.174465 0
0.508572 0.173633 0
0.515071 0.1728 0
0.52157 0.171967 0
0.502356 0.176687 0
0.508856 0.175855 0
[...]
POINT_DATA 864
VECTORS displacement double
0 0 0
-6.95337e-05 -5.53861e-05 0
-0.000143214 -0.000128634 0
-0.000214609 -0.000249284 0
0 0 0
-5.01916e-05 -3.88926e-05 0
-0.000110785 -0.0001139 0
-0.000165319 -0.000234576 0
0 0 0
-3.45786e-05 -2.6988e-05 0
-7.82175e-05 -0.000102262 0
-0.000117843 -0.000224279 0
0 0 0
-2.0343e-05 -1.93578e-05 0
-4.65296e-05 -9.43688e-05 0
-7.04818e-05 -0.000217428 0
-0.000214609 -0.000249284 0
-0.000282273 -0.000414978 0
-0.000346754 -0.000623823 0
-0.00040844 -0.000873475 0
-0.000165319 -0.000234576 0
-0.00021846 -0.000401627 0
-0.000268746 -0.000611028 0
-0.000316702 -0.00086132 0
-0.000117843 -0.000224279 0
-0.000155387 -0.000391485 0
-0.000191456 -0.000601437 0
-0.000225677 -0.000852148 0
-7.04818e-05 -0.000217428 0
-9.30424e-05 -0.000384763 0
-0.000114638 -0.000595007 0
-0.000135244 -0.000846075 0
-0.00040844 -0.000873475 0
-0.000467071 -0.00116217 0
-0.000522898 -0.0014879 0
-0.00057595 -0.00184891 0
-0.000316702 -0.00086132 0
-0.00036236 -0.00115057 0
-0.000405803 -0.00147687 0
-0.000447101 -0.00183842 0
-0.000225677 -0.000852148 0
-0.000258333 -0.00114186 0
-0.000289381 -0.00146859 0
-0.000318895 -0.00183056 0
-0.000135244 -0.000846075 0
-0.000154793 -0.00113605 0
-0.000173439 -0.00146307 0
-0.000191148 -0.00182531 0
-0.00057595 -0.00184891 0
-0.000626342 -0.00224339 0
-0.00067415 -0.00266968 0
-0.000719462 -0.0031261 0
-0.000447101 -0.00183842 0
-0.00048632 -0.00223345 0
-0.000523532 -0.00266024 0
-0.000558802 -0.00311716 0
-0.000318895 -0.00183056 0
-0.000346924 -0.00222598 0
-0.000373519 -0.00265316 0
-0.000398727 -0.00311046 0
-0.000191148 -0.00182531 0
-0.000207976 -0.002221 0
-0.000223938 -0.00264844 0
-0.000239069 -0.00310598 0
-0.000719462 -0.0031261 0
-0.000762366 -0.00361108 0
-0.000802945 -0.00412307 0
-0.000841278 -0.00466059 0
-0.000558802 -0.00311716 0
-0.000592199 -0.00360262 0
-0.000623786 -0.00411507 0
-0.000653627 -0.00465305 0
-0.000398727 -0.00311046 0
-0.000422596 -0.00359627 0
-0.000445173 -0.00410907 0
-0.000466501 -0.00464738 0
-0.000239069 -0.00310598 0
-0.000253397 -0.00359203 0
-0.000266948 -0.00410507 0
-0.000279751 -0.0046436 0
-0.000841278 -0.00466059 0
-0.000877447 -0.00522222 0
-0.000911532 -0.00580657 0
-0.000943605 -0.00641231 0
-0.000653627 -0.00465305 0
-0.000681784 -0.0052151 0
-0.000708319 -0.00579986 0
-0.00073329 -0.00640601 0
-0.000466501 -0.00464738 0
-0.000486627 -0.00520976 0
-0.000505594 -0.00579483 0
-0.000523443 -0.00640127 0
-0.000279751 -0.0046436 0
-0.000291832 -0.00520619 0
-0.000303217 -0.00579147 0
-0.000313932 -0.00639812 0
-0.000943605 -0.00641231 0
-0.000973745 -0.00703817 0
-0.00100202 -0.00768291 0
-0.00102851 -0.00834535 0
-0.00073329 -0.00640601 0
-0.000756755 -0.00703225 0
-0.000778773 -0.00767736 0
-0.000799398 -0.00834015 0
-0.000523443 -0.00640127 0
-0.000540217 -0.0070278 0
-0.000555956 -0.00767319 0
-0.000570701 -0.00833625 0
-0.000313932 -0.00639812 0
-0.000324001 -0.00702484 0
-0.00033345 -0.00767041 0
-0.000342301 -0.00833365 0
-0.00102851 -0.00834535 0
-0.00105328 -0.00902435 0
-0.0010764 -0.00971881 0
-0.00109794 -0.0104277 0
-0.000799398 -0.00834015 0
-0.000818686 -0.00901949 0
-0.000836689 -0.00971429 0
-0.000853461 -0.0104235 0
-0.000570701 -0.00833625 0
-0.000584489 -0.00901585 0
-0.000597361 -0.00971089 0
-0.000609352 -0.0104203 0
-0.000342301 -0.00833365 0
-0.000350579 -0.00901342 0
-0.000358307 -0.00970862 0
-0.000365506 -0.0104182 0
-0.00109794 -0.0104277 0
-0.00111796 -0.01115 0
-0.00113653 -0.0118847 0
-0.0011537 -0.012631 0
-0.000853461 -0.0104235 0
-0.000869053 -0.0111461 0
-0.000883515 -0.0118811 0
-0.000896896 -0.0126277 0
-0.000609352 -0.0104203 0
-0.0006205 -0.0111432 0
-0.000630841 -0.0118784 0
-0.00064041 -0.0126252 0
-0.000365506 -0.0104182 0
-0.0003722 -0.0111412 0
-0.000378408 -0.0118766 0
-0.000384154 -0.0126235 0
-0.0011537 -0.012631 0
-0.00116956 -0.013388 0
-0.00118414 -0.0141547 0
-0.00119752 -0.0149304 0
-0.000896896 -0.0126277 0
-0.000909245 -0.0133849 0
-0.000920609 -0.0141518 0
-0.000931036 -0.0149278 0
-0.00064041 -0.0126252 0
-0.000649241 -0.0133825 0
-0.000657369 -0.0141497 0
-0.000664827 -0.0149259 0
-0.000384154 -0.0126235 0
-0.000389457 -0.013381 0
-0.000394338 -0.0141483 0
-0.000398817 -0.0149246 0
-0.00119752 -0.0149304 0
-0.00120976 -0.0157144 0
-0.0012209 -0.0165059 0
-0.00123102 -0.0173042 0
-0.000931036 -0.0149278 0
-0.00094057 -0.015712 0
-0.000949257 -0.0165037 0
-0.000957141 -0.0173023 0
-0.000664827 -0.0149259 0
-0.000671647 -0.0157102 0
-0.000677862 -0.0165021 0
-0.000683503 -0.0173008 0
-0.000398817 -0.0149246 0
-0.000402913 -0.0157091 0
-0.000406645 -0.016501 0
-0.000410034 -0.0172998 0
-0.00123102 -0.0173042 0
-0.00124015 -0.0181087 0
-0.00124837 -0.0189188 0
-0.00125571 -0.0197338 0
-0.000957141 -0.0173023 0
-0.000964264 -0.018107 0
-0.000970672 -0.0189172 0
-0.000976403 -0.0197324 0
-0.000683503 -0.0173008 0
-0.000688601 -0.0181056 0
-0.000693186 -0.018916 0
-0.00069729 -0.0197314 0
-0.000410034 -0.0172998 0
-0.000413096 -0.0181048 0
-0.000415852 -0.0189152 0
-0.000418317 -0.0197307 0
-0.00125571 -0.0197338 0
-0.00126225 -0.0205533 0
-0.00126802 -0.0213767 0
-0.00127308 -0.0222036 0
-0.000976403 -0.0197324 0
-0.000981501 -0.0205521 0
-0.000986006 -0.0213756 0
-0.000989956 -0.0222026 0
-0.00069729 -0.0197314 0
-0.00070094 -0.0205511 0
-0.000704166 -0.0213748 0
-0.000706997 -0.0222019 0
-0.000418317 -0.0197307 0
-0.000420511 -0.0205505 0
-0.00042245 -0.0213742 0
-0.000424152 -0.0222014 0
-0.00127308 -0.0222036 0
-0.00127747 -0.0230334 0
-0.00128126 -0.0238659 0
-0.00128449 -0.0247005 0
-0.000989956 -0.0222026 0
-0.000993393 -0.0230326 0
-0.000996354 -0.0238652 0
-0.000998877 -0.0246999 0
-0.000706997 -0.0222019 0
-0.000709461 -0.023032 0
-0.000711584 -0.0238646 0
-0.000713395 -0.0246995 0
-0.000424152 -0.0222014 0
-0.000425634 -0.0230316 0
-0.000426911 -0.0238643 0
-0.000428001 -0.0246992 0
-0.00128449 -0.0247005 0
-0.00128719 -0.0255371 0
-0.00128944 -0.0263751 0
-0.00129126 -0.0272144 0
-0.000998877 -0.0246999 0
-0.001001 -0.0255366 0
-0.00100276 -0.0263747 0
-0.00100419 -0.0272141 0
-0.000713395 -0.0246995 0
-0.000714919 -0.0255362 0
-0.000716184 -0.0263744 0
-0.000717214 -0.0272139 0
-0.000428001 -0.0246992 0
-0.000428919 -0.0255359 0
-0.000429681 -0.0263742 0
-0.000430302 -0.0272137 0
-0.00129126 -0.0272144 0
-0.0012927 -0.0280548 0
-0.00129382 -0.0288958 0
-0.00129465 -0.0297375 0
-0.00100419 -0.0272141 0
-0.00100533 -0.0280545 0
-0.00100621 -0.0288956 0
-0.00100687 -0.0297374 0
-0.000717214 -0.0272139 0
-0.000718035 -0.0280543 0
-0.000718673 -0.0288955 0
-0.000719151 -0.0297372 0
-0.000430302 -0.0272137 0
-0.000430798 -0.0280542 0
-0.000431184 -0.0288954 0
-0.000431474 -0.0297372 0
-0.00129465 -0.0297375 0
-0.00129524 -0.0305796 0
-0.00129562 -0.0314219 0
-0.00129585 -0.0322643 0
-0.00100687 -0.0297374 0
-0.00100734 -0.0305794 0
-0.00100765 -0.0314218 0
-0.00100784 -0.0322643 0
-0.000719151 -0.0297372 0
-0.000719494 -0.0305794 0
-0.000719725 -0.0314217 0
-0.000719868 -0.0322642 0
-0.000431474 -0.0297372 0
-0.000431683 -0.0305793 0
-0.000431824 -0.0314217 0
-0.000431912 -0.0322642 0
-0.00129585 -0.0322643 0
-0.00129596 -0.0331068 0
-0.00129599 -0.0339493 0
-0.00129599 -0.0347917 0
-0.00100784 -0.0322643 0
-0.00100794 -0.0331068 0
-0.00100798 -0.0339493 0
-0.00100799 -0.0347917 0
-0.000719868 -0.0322642 0
-0.000719945 -0.0331068 0
-0.000719978 -0.0339493 0
-0.000719988 -0.0347917 0
-0.000431912 -0.0322642 0
-0.000431962 -0.0331068 0
-0.000431983 -0.0339493 0
-0.000431991 -0.0347917 0
0 0 0
-2.0343e-05 -1.93578e-05 0
-4.65296e-05 -9.43688e-05 0
-7.04818e-05 -0.000217428 0
0 0 0
-6.72617e-06 -1.56185e-05 0
-1.54349e-05 -9.04043e-05 0
-2.34774e-05 -0.000213992 0
0 0 0
6.72617e-06 -1.56185e-05 0
1.54349e-05 -9.04043e-05 0
2.34774e-05 -0.000213992 0
0 0 0
2.0343e-05 -1.93578e-05 0
4.65296e-05 -9.43688e-05 0
7.04818e-05 -0.000217428 0
-7.04818e-05 -0.000217428 0
-9.30424e-05 -0.000384763 0
-0.000114638 -0.000595007 0
-0.000135244 -0.000846075 0
-2.34774e-05 -0.000213992 0
-3.09733e-05 -0.000381403 0
-3.81804e-05 -0.000591796 0
-4.50391e-05 -0.000843025 0
2.34774e-05 -0.000213992 0
3.09733e-05 -0.000381403 0
3.81804e-05 -0.000591796 0
4.50391e-05 -0.000843025 0
7.04818e-05 -0.000217428 0
9.30424e-05 -0.000384763 0
0.000114638 -0.000595007 0
0.000135244 -0.000846075 0
-0.000135244 -0.000846075 0
-0.000154793 -0.00113605 0
-0.000173439 -0.00146307 0
-0.000191148 -0.00182531 0
-4.50391e-05 -0.000843025 0
-5.15673e-05 -0.00113315 0
-5.778e-05 -0.00146031 0
-6.36875e-05 -0.00182268 0
4.50391e-05 -0.000843025 0
5.15673e-05 -0.00113315 0
5.778e-05 -0.00146031 0
6.36875e-05 -0.00182268 0
0.000135244 -0.000846075 0
0.000154793 -0.00113605 0
0.000173439 -0.00146307 0
0.000191148 -0.00182531 0
-0.000191148 -0.00182531 0
-0.000207976 -0.002221 0
-0.000223938 -0.00264844 0
-0.000239069 -0.00310598 0
-6.36875e-05 -0.00182268 0
-6.9295e-05 -0.0022185 0
-7.46174e-05 -0.00264607 0
-7.96617e-05 -0.00310374 0
6.36875e-05 -0.00182268 0
6.9295e-05 -0.0022185 0
7.46174e-05 -0.00264607 0
7.96617e-05 -0.00310374 0
0.000191148 -0.00182531 0
0.000207976 -0.002221 0
0.000223938 -0.00264844 0
0.000239069 -0.00310598 0
-0.000239069 -0.00310598 0
-0.000253397 -0.00359203 0
-0.000266948 -0.00410507 0
-0.000279751 -0.0046436 0
-7.96617e-05 -0.00310374 0
-8.44387e-05 -0.00358992 0
-8.89567e-05 -0.00410306 0
-9.32253e-05 -0.00464171 0
7.96617e-05 -0.00310374 0
8.44387e-05 -0.00358992 0
8.89567e-05 -0.00410306 0
9.32253e-05 -0.00464171 0
0.000239069 -0.00310598 0
0.000253397 -0.00359203 0
0.000266948 -0.00410507 0
0.000279751 -0.0046436 0
-0.000279751 -0.0046436 0
-0.000291832 -0.00520619 0
-0.000303217 -0.00579147 0
-0.000313932 -0.00639812 0
-9.32253e-05 -0.00464171 0
-9.72532e-05 -0.00520441 0
-0.000101049 -0.00578979 0
-0.000104621 -0.00639654 0
9.32253e-05 -0.00464171 0
9.72532e-05 -0.00520441 0
0.000101049 -0.00578979 0
0.000104621 -0.00639654 0
0.000279751 -0.0046436 0
0.000291832 -0.00520619 0
0.000303217 -0.00579147 0
0.000313932 -0.00639812 0
-0.000313932 -0.00639812 0
-0.000324001 -0.00702484 0
-0.00033345 -0.00767041 0
-0.000342301 -0.00833365 0
-0.000104621 -0.00639654 0
-0.000107979 -0.00702335 0
-0.000111129 -0.00766902 0
-0.00011408 -0.00833235 0
0.000104621 -0.00639654 0
0.000107979 -0.00702335 0
0.000111129 -0.00766902 0
0.00011408 -0.00833235 0
0.000313932 -0.00639812 0
0.000324001 -0.00702484 0
0.00033345 -0.00767041 0
0.000342301 -0.00833365 0
-0.000342301 -0.00833365 0
-0.000350579 -0.00901342 0
-0.000358307 -0.00970862 0
-0.000365506 -0.0104182 0
-0.00011408 -0.00833235 0
-0.000116841 -0.0090122 0
-0.000119417 -0.00970749 0
-0.000121818 -0.0104172 0
0.00011408 -0.00833235 0
0.000116841 -0.0090122 0
0.000119417 -0.00970749 0
0.000121818 -0.0104172 0
0.000342301 -0.00833365 0
0.000350579 -0.00901342 0
0.000358307 -0.00970862 0
0.000365506 -0.0104182 0
-0.000365506 -0.0104182 0
-0.0003722 -0.0111412 0
-0.000378408 -0.0118766 0
-0.000384154 -0.0126235 0
-0.000121818 -0.0104172 0
-0.00012405 -0.0111402 0
-0.00012612 -0.0118757 0
-0.000128036 -0.0126226 0
0.000121818 -0.0104172 0
0.00012405 -0.0111402 0
0.00012612 -0.0118757 0
0.000128036 -0.0126226 0
0.000365506 -0.0104182 0
0.0003722 -0.0111412 0
0.000378408 -0.0118766 0
0.000384154 -0.0126235 0
-0.000384154 -0.0126235 0
-0.000389457 -0.013381 0
-0.000394338 -0.0141483 0
-0.000398817 -0.0149246 0
-0.000128036 -0.0126226 0
-0.000129804 -0.0133802 0
-0.000131432 -0.0141476 0
-0.000132926 -0.0149239 0
0.000128036 -0.0126226 0
0.000129804 -0.0133802 0
0.000131432 -0.0141476 0
0.000132926 -0.0149239 0
0.000384154 -0.0126235 0
0.000389457 -0.013381 0
0.000394338 -0.0141483 0
0.000398817 -0.0149246 0
-0.000398817 -0.0149246 0
-0.000402913 -0.0157091 0
-0.000406645 -0.016501 0
-0.000410034 -0.0172998 0
-0.000132926 -0.0149239 0
-0.000134292 -0.0157085 0
-0.000135537 -0.0165005 0
-0.000136667 -0.0172993 0
0.000132926 -0.0149239 0
0.000134292 -0.0157085 0
0.000135537 -0.0165005 0
0.000136667 -0.0172993 0
0.000398817 -0.0149246 0
0.000402913 -0.0157091 0
0.000406645 -0.016501 0
0.000410034 -0.0172998 0
-0.000410034 -0.0172998 0
-0.000413096 -0.0181048 0
-0.000415852 -0.0189152 0
-0.000418317 -0.0197307 0
-0.000136667 -0.0172993 0
-0.000137688 -0.0181043 0
-0.000138607 -0.0189148 0
-0.00013943 -0.0197303 0
0.000136667 -0.0172993 0
0.000137688 -0.0181043 0
0.000138607 -0.0189148 0
0.00013943 -0.0197303 0
0.000410034 -0.0172998 0
0.000413096 -0.0181048 0
0.000415852 -0.0189152 0
0.000418317 -0.0197307 0
-0.000418317 -0.0197307 0
-0.000420511 -0.0205505 0
-0.00042245 -0.0213742 0
-0.000424152 -0.0222014 0
-0.00013943 -0.0197303 0
-0.000140162 -0.0205502 0
-0.000140809 -0.021374 0
-0.000141376 -0.0222012 0
0.00013943 -0.0197303 0
0.000140162 -0.0205502 0
0.000140809 -0.021374 0
0.000141376 -0.0222012 0
0.000418317 -0.0197307 0
0.000420511 -0.0205505 0
0.00042245 -0.0213742 0
0.000424152 -0.0222014 0
-0.000424152 -0.0222014 0
-0.000425634 -0.0230316 0
-0.000426911 -0.0238643 0
-0.000428001 -0.0246992 0
-0.000141376 -0.0222012 0
-0.000141871 -0.0230314 0
-0.000142297 -0.0238641 0
-0.000142661 -0.024699 0
0.000141376 -0.0222012 0
0.000141871 -0.0230314 0
0.000142297 -0.0238641 0
0.000142661 -0.024699 0
0.000424152 -0.0222014 0
0.000425634 -0.0230316 0
0.000426911 -0.0238643 0
0.000428001 -0.0246992 0
-0.000428001 -0.0246992 0
-0.000428919 -0.0255359 0
-0.000429681 -0.0263742 0
-0.000430302 -0.0272137 0
-0.000142661 -0.024699 0
-0.000142968 -0.0255358 0
-0.000143222 -0.0263741 0
-0.00014343 -0.0272136 0
0.000142661 -0.024699 0
0.000142968 -0.0255358 0
0.000143222 -0.0263741 0
0.00014343 -0.0272136 0
0.000428001 -0.0246992 0
0.000428919 -0.0255359 0
0.000429681 -0.0263742 0
0.000430302 -0.0272137 0
-0.000430302 -0.0272137 0
-0.000430798 -0.0280542 0
-0.000431184 -0.0288954 0
-0.000431474 -0.0297372 0
-0.00014343 -0.0272136 0
-0.000143596 -0.0280541 0
-0.000143725 -0.0288953 0
-0.000143822 -0.0297371 0
0.00014343 -0.0272136 0
0.000143596 -0.0280541 0
0.000143725 -0.0288953 0
0.000143822 -0.0297371 0
0.000430302 -0.0272137 0
0.000430798 -0.0280542 0
0.000431184 -0.0288954 0
0.000431474 -0.0297372 0
-0.000431474 -0.0297372 0
-0.000431683 -0.0305793 0
-0.000431824 -0.0314217 0
-0.000431912 -0.0322642 0
-0.000143822 -0.0297371 0
-0.000143892 -0.0305793 0
-0.00014394 -0.0314217 0
-0.000143969 -0.0322642 0
0.000143822 -0.0297371 0
0.000143892 -0.0305793 0
0.00014394 -0.0314217 0
0.000143969 -0.0322642 0
0.000431474 -0.0297372 0
0.000431683 -0.0305793 0
0.000431824 -0.0314217 0
0.000431912 -0.0322642 0
-0.000431912 -0.0322642 0
-0.000431962 -0.0331068 0
-0.000431983 -0.0339493 0
-0.000431991 -0.0347917 0
-0.000143969 -0.0322642 0
-0.000143986 -0.0331068 0
-0.000143994 -0.0339493 0
-0.000143997 -0.0347917 0
0.000143969 -0.0322642 0
0.000143986 -0.0331068 0
0.000143994 -0.0339493 0
0.000143997 -0.0347917 0
0.000431912 -0.0322642 0
0.000431962 -0.0331068 0
0.000431983 -0.0339493 0
0.000431991 -0.0347917 0
0 0 0
2.0343e-05 -1.93578e-05 0
4.65296e-05 -9.43688e-05 0
7.04818e-05 -0.000217428 0
0 0 0
3.45786e-05 -2.6988e-05 0
7.82175e-05 -0.000102262 0
0.000117843 -0.000224279 0
0 0 0
5.01916e-05 -3.88926e-05 0
0.000110785 -0.0001139 0
0.000165319 -0.000234576 0
0 0 0
6.95337e-05 -5.53861e-05 0
0.000143214 -0.000128634 0
0.000214609 -0.000249284 0
7.04818e-05 -0.000217428 0
9.30424e-05 -0.000384763 0
0.000114638 -0.000595007 0
0.000135244 -0.000846075 0
0.000117843 -0.000224279 0
0.000155387 -0.000391485 0
0.000191456 -0.000601437 0
0.000225677 -0.000852148 0
0.000165319 -0.000234576 0
0.00021846 -0.000401627 0
0.000268746 -0.000611028 0
0.000316702 -0.00086132 0
0.000214609 -0.000249284 0
0.000282273 -0.000414978 0
0.000346754 -0.000623823 0
0.00040844 -0.000873475 0
0.000135244 -0.000846075 0
0.000154793 -0.00113605 0
0.000173439 -0.00146307 0
0.000191148 -0.00182531 0
0.000225677 -0.000852148 0
0.000258333 -0.00114186 0
0.000289381 -0.00146859 0
0.000318895 -0.00183056 0
0.000316702 -0.00086132 0
0.00036236 -0.00115057 0
0.000405803 -0.00147687 0
0.000447101 -0.00183842 0
0.00040844 -0.000873475 0
0.000467071 -0.00116217 0
0.000522898 -0.0014879 0
0.00057595 -0.00184891 0
0.000191148 -0.00182531 0
0.000207976 -0.002221 0
0.000223938 -0.00264844 0
0.000239069 -0.00310598 0
0.000318895 -0.00183056 0
0.000346924 -0.00222598 0
0.000373519 -0.00265316 0
0.000398727 -0.00311046 0
0.000447101 -0.00183842 0
0.00048632 -0.00223345 0
0.000523532 -0.00266024 0
0.000558802 -0.00311716 0
0.00057595 -0.00184891 0
0.000626342 -0.00224339 0
0.00067415 -0.00266968 0
0.000719462 -0.0031261 0
0.000239069 -0.00310598 0
0.000253397 -0.00359203 0
0.000266948 -0.00410507 0
0.000279751 -0.0046436 0
0.000398727 -0.00311046 0
0.000422596 -0.00359627 0
0.000445173 -0.00410907 0
0.000466501 -0.00464738 0
0.000558802 -0.00311716 0
0.000592199 -0.00360262 0
0.000623786 -0.00411507 0
0.000653627 -0.00465305 0
0.000719462 -0.0031261 0
0.000762366 -0.00361108 0
0.000802945 -0.00412307 0
0.000841278 -0.00466059 0
0.000279751 -0.0046436 0
0.000291832 -0.00520619 0
0.000303217 -0.00579147 0
0.000313932 -0.00639812 0
0.000466501 -0.00464738 0
0.000486627 -0.00520976 0
0.000505594 -0.00579483 0
0.000523443 -0.00640127 0
0.000653627 -0.00465305 0
0.000681784 -0.0052151 0
0.000708319 -0.00579986 0
0.00073329 -0.00640601 0
0.000841278 -0.00466059 0
0.000877447 -0.00522222 0
0.000911532 -0.00580657 0
0.000943605 -0.00641231 0
0.000313932 -0.00639812 0
0.000324001 -0.00702484 0
0.00033345 -0.00767041 0
0.000342301 -0.00833365 0
0.000523443 -0.00640127 0
0.000540217 -0.0070278 0
0.000555956 -0.00767319 0
0.000570701 -0.00833625 0
0.00073329 -0.00640601 0
0.000756755 -0.00703225 0
0.000778773 -0.00767736 0
0.000799398 -0.00834015 0
0.000943605 -0.00641231 0
0.000973745 -0.00703817 0
0.00100202 -0.00768291 0
0.00102851 -0.00834535 0
0.000342301 -0.00833365 0
0.000350579 -0.00901342 0
0.000358307 -0.00970862 0
0.000365506 -0.0104182 0
0.000570701 -0.00833625 0
0.000584489 -0.00901585 0
0.000597361 -0.00971089 0
0.000609352 -0.0104203 0
0.000799398 -0.00834015 0
0.000818686 -0.00901949 0
0.000836689 -0.00971429 0
0.000853461 -0.0104235 0
0.00102851 -0.00834535 0
0.00105328 -0.00902435 0
0.0010764 -0.00971881 0
0.00109794 -0.0104277 0
0.000365506 -0.0104182 0
0.0003722 -0.0111412 0
0.000378408 -0.0118766 0
0.000384154 -0.0126235 0
0.000609352 -0.0104203 0
0.0006205 -0.0111432 0
0.000630841 -0.0118784 0
0.00064041 -0.0126252 0
0.000853461 -0.0104235 0
0.000869053 -0.0111461 0
0.000883515 -0.0118811 0
0.000896896 -0.0126277 0
0.00109794 -0.0104277 0
0.00111796 -0.01115 0
0.00113653 -0.0118847 0
0.0011537 -0.012631 0
0.000384154 -0.0126235 0
0.000389457 -0.013381 0
0.000394338 -0.0141483 0
0.000398817 -0.0149246 0
0.00064041 -0.0126252 0
0.000649241 -0.0133825 0
0.000657369 -0.0141497 0
0.000664827 -0.0149259 0
0.000896896 -0.0126277 0
0.000909245 -0.0133849 0
0.000920609 -0.0141518 0
0.000931036 -0.0149278 0
0.0011537 -0.012631 0
0.00116956 -0.013388 0
0.00118414 -0.0141547 0
0.00119752 -0.0149304 0
0.000398817 -0.0149246 0
0.000402913 -0.0157091 0
0.000406645 -0.016501 0
0.000410034 -0.0172998 0
0.000664827 -0.0149259 0
0.000671647 -0.0157102 0
0.000677862 -0.0165021 0
0.000683503 -0.0173008 0
0.000931036 -0.0149278 0
0.00094057 -0.015712 0
0.000949257 -0.0165037 0
0.000957141 -0.0173023 0
0.00119752 -0.0149304 0
0.00120976 -0.0157144 0
0.0012209 -0.0165059 0
0.00123102 -0.0173042 0
0.000410034 -0.0172998 0
0.000413096 -0.0181048 0
0.000415852 -0.0189152 0
0.000418317 -0.0197307 0
0.000683503 -0.0173008 0
0.000688601 -0.0181056 0
0.000693186 -0.018916 0
0.00069729 -0.0197314 0
0.000957141 -0.0173023 0
0.000964264 -0.018107 0
0.000970672 -0.0189172 0
0.000976403 -0.0197324 0
0.00123102 -0.0173042 0
0.00124015 -0.0181087 0
0.00124837 -0.0189188 0
0.00125571 -0.0197338 0
0.000418317 -0.0197307 0
0.000420511 -0.0205505 0
0.00042245 -0.0213742 0
0.000424152 -0.0222014 0
0.00069729 -0.0197314 0
0.00070094 -0.0205511 0
0.000704166 -0.0213748 0
0.000706997 -0.0222019 0
0.000976403 -0.0197324 0
0.000981501 -0.0205521 0
0.000986006 -0.0213756 0
0.000989956 -0.0222026 0
0.00125571 -0.0197338 0
0.00126225 -0.0205533 0